                              Psi4 0.1.156 Driver

  ==> Input File <==

--------------------------------------------------------------------------
memory 1 GB

molecule {
0 1
O  -1.551007  -0.114520   0.000000
H  -1.934259   0.762503   0.000000
H  -0.599677   0.040712   0.000000
--
0 1
O   1.350625   0.111469   0.000000
H   1.680398  -0.373741  -0.758561
H   1.680398  -0.373741   0.758561
symmetry c1
no_reorient
no_com
}

set {
basis         jun-cc-pvdz
df_basis_scf  jun-cc-pvdz-jkfit
df_basis_sapt jun-cc-pvdz-jkfit
scf_type df
guess sad
freeze_core true
}

energy('fisapt0')
energy('sapt0')
--------------------------------------------------------------------------

    Molecular point group: c1
  Charge       = 0
  Multiplicity = 1
  Basis Set: JUN-CC-PVDZ
  Basis Set: JUN-CC-PVDZ-JKFIT
  @DF-RHF Final Energy:  -152.08141745619523
    Total Energy =                       -152.0814174561952541
  Basis Set: JUN-CC-PVDZ-JKFIT
  Basis Set: JUN-CC-PVDZ-JKFIT
  Basis Set: JUN-CC-PVDZ-JKFIT
  Basis Set: JUN-CC-PVDZ-JKFIT
  Basis Set: JUN-CC-PVDZ-JKFIT
  //              Dimer HF             //
    Molecular point group: c1
  Basis Set: JUN-CC-PVDZ
  Basis Set: JUN-CC-PVDZ-JKFIT
  @DF-RHF Final Energy:  -152.08141745619520
    Total Energy =                       -152.0814174561952541
  //            Monomer A HF           //
  Multiplicity = 1
  Basis Set: JUN-CC-PVDZ
  Basis Set: JUN-CC-PVDZ-JKFIT
  @DF-RHF Final Energy:   -76.03737933724544
    Total Energy =                        -76.0373793372454543
  //            Monomer B HF           //
    Molecular point group: c1

    Geometry (in Angstrom), charge = 0, multiplicity = 1:

       Center              X                  Y                   Z
    ------------   -----------------  -----------------  -----------------
           O(Gh)     -1.551007000000    -0.114520000000     0.000000000000
           H(Gh)     -1.934259000000     0.762503000000     0.000000000000
           H(Gh)     -0.599677000000     0.040712000000     0.000000000000
           O          1.350625000000     0.111469000000     0.000000000000
           H          1.680398000000    -0.373741000000    -0.758561000000
           H          1.680398000000    -0.373741000000     0.758561000000

  Charge       = 0
  Multiplicity = 1
  Basis Set: JUN-CC-PVDZ
  Basis Set: JUN-CC-PVDZ-JKFIT

    Orbital Energies (a.u.)
    -----------------------

    Doubly Occupied:

       1A    -20.577371     2A     -1.355542     3A     -0.718341
       4A     -0.584096     5A     -0.508822

  @DF-RHF Final Energy:   -76.03796420533943

   => Energetics <=

    Nuclear Repulsion Energy =              9.1780389049035875
    One-Electron Energy =                -122.9436629129468912
    Two-Electron Energy =                  37.7276598027038972
    DFT Exchange-Correlation Energy =       0.0000000000000000
    Empirical Dispersion Energy =           0.0000000000000000
    PCM Polarization Energy =               0.0000000000000000
    EFP Energy =                            0.0000000000000000
    Total Energy =                        -76.0379642053394065

    SAPT Results
  -----------------------------------------------------------------------
    Electrostatics         -14.07720983 mH      -8.83358290 kcal mol^-1
      Elst10,r             -14.07720983 mH      -8.83358290 kcal mol^-1

    Exchange                11.36552716 mH       7.13197626 kcal mol^-1
      Exch10                11.36552716 mH       7.13197626 kcal mol^-1
      Exch10(S^2)           11.28322474 mH       7.08033072 kcal mol^-1

    Induction               -3.36223094 mH      -2.10983186 kcal mol^-1
      Ind20,r               -4.51311632 mH      -2.83202337 kcal mol^-1
      Exch-Ind20,r           2.52080386 mH       1.58182837 kcal mol^-1
      delta HF,r (2)        -1.36991848 mH      -0.85963686 kcal mol^-1

    Dispersion              -2.02757907 mH      -1.27232513 kcal mol^-1
      Disp20                -2.57734626 mH      -1.61730926 kcal mol^-1
      Exch-Disp20            0.54976720 mH       0.34498414 kcal mol^-1

    SCS Dispersion          -1.59027332 mH      -0.99791161 kcal mol^-1
      Disp20 (SS)           -1.28867313 mH      -0.80865463 kcal mol^-1
      Disp20 (OS)           -1.28867313 mH      -0.80865463 kcal mol^-1
      Exch-Disp20 (SS)       0.31618671 mH       0.19841017 kcal mol^-1
      Exch-Disp20 (OS)       0.23358048 mH       0.14657397 kcal mol^-1

    Same-Spin Scale          3.333E-01
    Opposite-Spin Scale      1.200E+00

    Total HF                -6.07391361 mH      -3.81143849 kcal mol^-1
    Total SAPT0             -8.10149268 mH      -5.08376362 kcal mol^-1
    Total SCS-SAPT0         -7.66418693 mH      -4.80935011 kcal mol^-1

*** tstop() called on lawn-128-61-55-214.lawn.gatech.edu at Tue Jun  2 15:03:01 2015
Module time:
	user time   =       0.54 seconds =       0.01 minutes
	system time =       0.10 seconds =       0.00 minutes
	total time  =          1 seconds =       0.02 minutes
Total time:
	user time   =       7.62 seconds =       0.13 minutes
	system time =       0.68 seconds =       0.01 minutes
	total time  =          9 seconds =       0.15 minutes

*** PSI4 exiting successfully. Buy a developer a beer!
