                              Psi4 0.1.156 Driver

  ==> Input File <==

--------------------------------------------------------------------------
memory 1 GB

molecule {
0 1
O          0.39987        2.94222       -0.26535
H          0.05893        2.05436       -0.50962
--
0 1
O          0.48122        0.30277       -0.77763
H          0.26106       -0.50005       -1.28451
--
0 1
C          2.33048       -1.00269        0.03771
C          1.89725        0.31533       -0.59009
C          2.28232        1.50669        0.29709
C          1.82204        2.84608       -0.29432
C          2.37905        4.02099        0.49639
H          3.41246       -1.03030        0.19825
H          2.05362       -1.84372       -0.60709
H          1.82714       -1.16382        0.99734
H          2.36243        0.42333       -1.57636
H          3.36962        1.51414        0.43813
H          1.81251        1.38060        1.28140
H          2.14344        2.92967       -1.33843
H          3.47320        4.02400        0.48819
H          2.03535        3.99216        1.53635
H          2.02481        4.96785        0.07455
symmetry c1
no_reorient
no_com
}

# => Standard Options <= #

set {
basis         jun-cc-pvdz
scf_type df
guess sad
freeze_core true
fisapt_do_plot true
}

energy('fisapt0')
--------------------------------------------------------------------------

    Molecular point group: c1

    Geometry (in Angstrom), charge = 0, multiplicity = 1:

       Center              X                  Y                   Z
    ------------   -----------------  -----------------  -----------------
           O          0.399870000000     2.942220000000    -0.265350000000
           H          0.058930000000     2.054360000000    -0.509620000000
           O          0.481220000000     0.302770000000    -0.777630000000
           H          0.261060000000    -0.500050000000    -1.284510000000
           C          2.330480000000    -1.002690000000     0.037710000000
           C          1.897250000000     0.315330000000    -0.590090000000
           C          2.282320000000     1.506690000000     0.297090000000
           C          1.822040000000     2.846080000000    -0.294320000000
           C          2.379050000000     4.020990000000     0.496390000000
           H          3.412460000000    -1.030300000000     0.198250000000
           H          2.053620000000    -1.843720000000    -0.607090000000
           H          1.827140000000    -1.163820000000     0.997340000000
           H          2.362430000000     0.423330000000    -1.576360000000
           H          3.369620000000     1.514140000000     0.438130000000
           H          1.812510000000     1.380600000000     1.281400000000
           H          2.143440000000     2.929670000000    -1.338430000000
           H          3.473200000000     4.024000000000     0.488190000000
           H          2.035350000000     3.992160000000     1.536350000000
           H          2.024810000000     4.967850000000     0.074550000000

  Charge       = 0
  Multiplicity = 1
  Basis Set: JUN-CC-PVDZ
  Basis Set:

    Orbital Energies (a.u.)
    -----------------------

    Doubly Occupied:

       1A    -20.586509     2A    -20.532787     3A    -11.298474
       4A    -11.273610     5A    -11.237243     6A    -11.231846
       7A    -11.213130     8A     -1.388450     9A     -1.333880
      10A     -1.072256    11A     -1.010514    12A     -0.940718
      13A     -0.828369    14A     -0.791867    15A     -0.718481
      16A     -0.688618    17A     -0.639530    18A     -0.624083
      19A     -0.588344    20A     -0.569072    21A     -0.553991
      22A     -0.541510    23A     -0.528633    24A     -0.519881
      25A     -0.512737    26A     -0.499499    27A     -0.459629
      28A     -0.437448    29A     -0.418063

  @DF-RHF Final Energy:  -346.08414448990868

   => Energetics <=

    Nuclear Repulsion Energy =            338.3111731249008471
    One-Electron Energy =               -1142.7122955776521849
    Two-Electron Energy =                 458.3169779628425431
    DFT Exchange-Correlation Energy =       0.0000000000000000
    Empirical Dispersion Energy =           0.0000000000000000
    PCM Polarization Energy =               0.0000000000000000
    EFP Energy =                            0.0000000000000000
    Total Energy =                       -346.0841444899087946
  Basis Set:
  Basis Set:
  Basis Set:
  Basis Set:
  Basis Set:
  Basis Set: JUN-CC-PVDZ

    SAPT Results
  -----------------------------------------------------------------------
    Electrostatics         -14.08984475 mH      -8.84151143 kcal mol^-1
      Elst10,r             -14.08984475 mH      -8.84151143 kcal mol^-1

    Exchange                17.76897850 mH      11.15020281 kcal mol^-1
      Exch10                17.76897850 mH      11.15020281 kcal mol^-1
      Exch10(S^2)           17.56806992 mH      11.02413077 kcal mol^-1

    Induction               -5.20103162 mH      -3.26369675 kcal mol^-1
      Ind20,r               -7.20130553 mH      -4.51888763 kcal mol^-1
      Exch-Ind20,r           4.19050330 mH       2.62958063 kcal mol^-1
      delta HF,r (2)        -2.19022940 mH      -1.37438976 kcal mol^-1
      Induction (A<-B)      -1.83275524 mH      -1.15007132 kcal mol^-1
      Induction (B<-A)      -3.36827638 mH      -2.11362543 kcal mol^-1

    Dispersion              -2.54901877 mH      -1.59953350 kcal mol^-1
      Disp20                -3.19983431 mH      -2.00792643 kcal mol^-1
      Exch-Disp20            0.65081554 mH       0.40839293 kcal mol^-1

    Total HF                -1.52189787 mH      -0.95500537 kcal mol^-1
    Total SAPT0             -4.07091665 mH      -2.55453887 kcal mol^-1

    Han Solo: This is *not* gonna work.
    Luke Skywalker: Why didn't you say so before?
    Han Solo: I *did* say so before.

*** tstop() called on lawn-128-61-55-214.lawn.gatech.edu at Tue Jun  2 15:58:53 2015
Module time:
	user time   =     524.24 seconds =       8.74 minutes
	system time =       4.50 seconds =       0.07 minutes
	total time  =        514 seconds =       8.57 minutes
Total time:
	user time   =     539.06 seconds =       8.98 minutes
	system time =       4.98 seconds =       0.08 minutes
	total time  =        526 seconds =       8.77 minutes

*** PSI4 exiting successfully. Buy a developer a beer!
