                              Psi4 0.1.156 Driver

  ==> Input File <==

--------------------------------------------------------------------------
memory 1 GB

molecule {
0 1
O  -1.551007  -0.114520   0.000000
H  -1.934259   0.762503   0.000000
H  -0.599677   0.040712   0.000000
--
0 1
O   1.350625   0.111469   0.000000
H   1.680398  -0.373741  -0.758561
H   1.680398  -0.373741   0.758561
symmetry c1
no_reorient
no_com
}

set {
basis         jun-cc-pvdz
scf_type df
guess sad
freeze_core true
}

energy('fisapt0')
--------------------------------------------------------------------------

    Molecular point group: c1

    Geometry (in Angstrom), charge = 0, multiplicity = 1:

       Center              X                  Y                   Z
    ------------   -----------------  -----------------  -----------------
           O         -1.551007000000    -0.114520000000     0.000000000000
           H         -1.934259000000     0.762503000000     0.000000000000
           H         -0.599677000000     0.040712000000     0.000000000000
           O          1.350625000000     0.111469000000     0.000000000000
           H          1.680398000000    -0.373741000000    -0.758561000000
           H          1.680398000000    -0.373741000000     0.758561000000

  Charge       = 0
  Multiplicity = 1
  Basis Set: JUN-CC-PVDZ
  Basis Set:

    Orbital Energies (a.u.)
    -----------------------

    Doubly Occupied:

       1A    -20.603072     2A    -20.545973     3A     -1.383875
       4A     -1.326428     5A     -0.744433     6A     -0.696440
       7A     -0.615347     8A     -0.560467     9A     -0.530147
      10A     -0.480576

  @DF-RHF Final Energy:  -152.08141745619520

   => Energetics <=

    Nuclear Repulsion Energy =             36.6628478527552986
    One-Electron Energy =                -282.5150117863782953
    Two-Electron Energy =                  93.7707464774277355
    DFT Exchange-Correlation Energy =       0.0000000000000000
    Empirical Dispersion Energy =           0.0000000000000000
    PCM Polarization Energy =               0.0000000000000000
    EFP Energy =                            0.0000000000000000
    Total Energy =                       -152.0814174561952541
  Basis Set:
  Basis Set:
  Basis Set:
  Basis Set:
  Basis Set:

    SAPT Results
  -----------------------------------------------------------------------
    Electrostatics         -14.07721503 mH      -8.83358616 kcal mol^-1
      Elst10,r             -14.07721503 mH      -8.83358616 kcal mol^-1

    Exchange                11.36549976 mH       7.13195907 kcal mol^-1
      Exch10                11.36549976 mH       7.13195907 kcal mol^-1
      Exch10(S^2)           11.28319770 mH       7.08031375 kcal mol^-1

    Induction               -3.36219834 mH      -2.10981140 kcal mol^-1
      Ind20,r               -4.51310886 mH      -2.83201868 kcal mol^-1
      Exch-Ind20,r           2.52079436 mH       1.58182241 kcal mol^-1
      delta HF,r (2)        -1.36988384 mH      -0.85961512 kcal mol^-1
      Induction (A<-B)      -0.85809672 mH      -0.53846384 kcal mol^-1
      Induction (B<-A)      -2.50410163 mH      -1.57134756 kcal mol^-1

    Dispersion              -2.02807480 mH      -1.27263620 kcal mol^-1
      Disp20                -2.57585738 mH      -1.61637498 kcal mol^-1
      Exch-Disp20            0.54778259 mH       0.34373878 kcal mol^-1

    Total HF                -6.07391361 mH      -3.81143849 kcal mol^-1
    Total SAPT0             -8.10198841 mH      -5.08407470 kcal mol^-1

    Han Solo: This is *not* gonna work.
    Luke Skywalker: Why didn't you say so before?
    Han Solo: I *did* say so before.

*** tstop() called on lawn-128-61-55-214.lawn.gatech.edu at Tue Jun  2 17:00:03 2015
Module time:
	user time   =       2.29 seconds =       0.04 minutes
	system time =       0.14 seconds =       0.00 minutes
	total time  =          2 seconds =       0.03 minutes
Total time:
	user time   =       3.57 seconds =       0.06 minutes
	system time =       0.17 seconds =       0.00 minutes
	total time  =          3 seconds =       0.05 minutes

*** PSI4 exiting successfully. Buy a developer a beer!
